------------------------------------------------------------
          Invoking FHI-aims ...

          When using FHI-aims, please cite the following reference:

            Volker Blum, Ralf Gehrke, Felix Hanke, Paula Havu,
            Ville Havu, Xinguo Ren, Karsten Reuter, and Matthias Scheffler,
            'Ab Initio Molecular Simulations with Numeric Atom-Centered Orbitals',
            Computer Physics Communications 180, 2175-2196 (2009)

          In addition, many other developments in FHI-aims are likely important for
          your particular application. If so, please cite them. A partial list of references
          is written at the end of this file. Thank you for giving credit to the authors
          of these developments.

          For general information about FHI-aims please find us at

            https://fhi-aims.org

          Online tutorials can be found at

            https://fhi-aims-club.gitlab.io/tutorials/tutorials-overview/

          For any questions about FHI-aims, please visit our slack channel at

            https://fhi-aims.slack.com

          and our main development and support site at

            https://aims-git.rz-berlin.mpg.de .

          The latter site, in particular, has a wiki to collect information, as well
          as an issue tracker to log discussions, suggest improvements, and report issues
          or bugs. https://aims-git.rz-berlin.mpg.de is also the main development site
          of the project and all new and updated code versions can be obtained there.
          Please send an email to aims-coordinators@fhi-berlin.mpg.de and we will add
          you to these sites. They are for you and everyone is welcome there.

------------------------------------------------------------



  Date     :  20251117, Time     :  112616.062
  Time zero on CPU 1             :   0.734359780000000E+02  s.
  Internal wall clock time zero  :           532610776.062  s.

  FHI-aims created a unique identifier for this run for later identification
  aims_uuid : DA571FE9-B462-48B9-A719-576A07B87C1F

  Build configuration of the current instance of FHI-aims
  -------------------------------------------------------
  FHI-aims version      : 250918
  Commit number         : 415f4ce19
  CMake host system     : Linux-5.14.0-570.37.1.el9_6.x86_64
  CMake version         : 3.26.3
  OS Distribution       : Rocky Linux 9.6 (Blue Onyx)
  Built on              : AMD EPYC 7742 64-Core Processor
  Fortran compiler      : /software/easybuild/software/OpenMPI/4.1.5-GCC-12.3.0/bin/mpifort (GNU) version 12.3.0
  Fortran compiler flags: -fallow-argument-mismatch -march=native -ffree-line-length-none -fPIC
  C compiler            : /software/easybuild/software/GCCcore/12.3.0/bin/gcc (GNU) version 12.3.0
  C compiler flags      : -march=native -fPIC
  C++ compiler          : /software/easybuild/software/GCCcore/12.3.0/bin/g++ (GNU) version 12.3.0
  C++ compiler flags    : -march=native -fPIC
  HIP compiler          :
  HIP compiler flags    :
  HIP GPU arch          :
  Using MPI
  Using ScaLAPACK
  Using LibXC
  Using i-PI
  Using RLSY
  Linking against: /software/easybuild/software/ScaLAPACK/2.2.0-gompi-2023a-fb/lib/libscalapack.so
                   /software/easybuild/software/OpenBLAS/0.3.23-GCC-12.3.0/lib/libopenblas.so

  Using        1 parallel tasks.
  Task        0 on host dedicated302.csc.warwick.ac.uk reporting.

  Obtaining array dimensions for all initial allocations:
  
  -----------------------------------------------------------------------
  Parsing control.in (first pass over file, find array dimensions only).
  The contents of control.in will be repeated verbatim below
  unless switched off by setting 'verbatim_writeout .false.' .
  in the first line of control.in .
  -----------------------------------------------------------------------
  
  #===============================================================================
  # Created using the Atomic Simulation Environment (ASE)
  
  # Mon Nov 17 11:26:16 2025
  
  #===============================================================================
  override_warning_libxc             .true.
  override_default_empty_basis_order .true.
  xc                                 libxc LDA_X+LDA_C_VWN
  relativistic                       atomic_zora scalar
  spin                               none
  xc_nakp                            libxc  LDA_K_TF
  xc_naxcp                           libxc LDA_X+LDA_C_VWN
  qm_embedding_type                  frozendensity  read_and_write
  output	 rho_and_derivs_on_grid	
  charge                             -0.0
  #===============================================================================
  
  ################################################################################
  #
  #  FHI-aims code project
  #  VB, Fritz-Haber Institut, 2009
  #
  #  Suggested "light" defaults for O atom (to be pasted into control.in file)
  #  Be sure to double-check any results obtained with these settings for post-processing,
  #  e.g., with the "tight" defaults and larger basis sets.
  #
  ################################################################################
    species        O
  #     global species definitions
      nucleus             8
      mass                15.9994
  #
      l_hartree           4
  #
      cut_pot             3.5  1.5  1.0
      basis_dep_cutoff    1e-4
  #
      radial_base         36 5.0
      radial_multiplier   1
       angular_grids specified
        division   0.2659   50
        division   0.4451  110
        division   0.6052  194
        division   0.7543  302
  #      division   0.8014  434
  #      division   0.8507  590
  #      division   0.8762  770
  #      division   0.9023  974
  #      division   1.2339 1202
  #      outer_grid 974
        outer_grid 302
  ################################################################################
  #
  #  Definition of "minimal" basis
  #
  ################################################################################
  #     valence basis states
      valence      2  s   2.
      valence      2  p   4.
  #     ion occupancy
      ion_occ      2  s   1.
      ion_occ      2  p   3.
  ################################################################################
  #
  #  Suggested additional basis functions. For production calculations,
  #  uncomment them one after another (the most important basis functions are
  #  listed first).
  #
  #  Constructed for dimers: 1.0 A, 1.208 A, 1.5 A, 2.0 A, 3.0 A
  #
  ################################################################################
  #  "First tier" - improvements: -699.05 meV to -159.38 meV
       hydro 2 p 1.8
       hydro 3 d 7.6
       hydro 3 s 6.4
  #  "Second tier" - improvements: -49.91 meV to -5.39 meV
  #     hydro 4 f 11.6
  #     hydro 3 p 6.2
  #     hydro 3 d 5.6
  #     hydro 5 g 17.6
  #     hydro 1 s 0.75
  #  "Third tier" - improvements: -2.83 meV to -0.50 meV
  #     ionic 2 p auto
  #     hydro 4 f 10.8
  #     hydro 4 d 4.7
  #     hydro 2 s 6.8
  #  "Fourth tier" - improvements: -0.40 meV to -0.12 meV
  #     hydro 3 p 5
  #     hydro 3 s 3.3
  #     hydro 5 g 15.6
  #     hydro 4 f 17.6
  #     hydro 4 d 14
  # Further basis functions - -0.08 meV and below
  #     hydro 3 s 2.1
  #     hydro 4 d 11.6
  #     hydro 3 p 16
  #     hydro 2 s 17.2
  ################################################################################
  #
  #  FHI-aims code project
  #  VB, Fritz-Haber Institut, 2009
  #
  #  Suggested "light" defaults for H atom (to be pasted into control.in file)
  #  Be sure to double-check any results obtained with these settings for post-processing,
  #  e.g., with the "tight" defaults and larger basis sets.
  #
  ################################################################################
    species        H
  #     global species definitions
      nucleus             1
      mass                1.00794
  #
      l_hartree           4
  #
      cut_pot             3.5  1.5  1.0
      basis_dep_cutoff    1e-4
  #
      radial_base         24 5.0
      radial_multiplier   1
      angular_grids       specified
        division   0.2421   50
        division   0.3822  110
        division   0.4799  194
        division   0.5341  302
  #      division   0.5626  434
  #      division   0.5922  590
  #      division   0.6542  770
  #      division   0.6868 1202
  #      outer_grid  770
        outer_grid  302
  ################################################################################
  #
  #  Definition of "minimal" basis
  #
  ################################################################################
  #     valence basis states
      valence      1  s   1.
  #     ion occupancy
      ion_occ      1  s   0.5
  ################################################################################
  #
  #  Suggested additional basis functions. For production calculations,
  #  uncomment them one after another (the most important basis functions are
  #  listed first).
  #
  #  Basis constructed for dimers: 0.5 A, 0.7 A, 1.0 A, 1.5 A, 2.5 A
  #
  ################################################################################
  #  "First tier" - improvements: -1014.90 meV to -62.69 meV
       hydro 2 s 2.1
       hydro 2 p 3.5
  #  "Second tier" - improvements: -12.89 meV to -1.83 meV
  #     hydro 1 s 0.85
  #     hydro 2 p 3.7
  #     hydro 2 s 1.2
  #     hydro 3 d 7
  #  "Third tier" - improvements: -0.25 meV to -0.12 meV
  #     hydro 4 f 11.2
  #     hydro 3 p 4.8
  #     hydro 4 d 9
  #     hydro 3 s 3.2
  
  -----------------------------------------------------------------------
  Completed first pass over input file control.in .
  -----------------------------------------------------------------------
  
  
  -----------------------------------------------------------------------
  Parsing geometry.in (first pass over file, find array dimensions only).
  The contents of geometry.in will be repeated verbatim below
  unless switched off by setting 'verbatim_writeout .false.' .
  in the first line of geometry.in .
  -----------------------------------------------------------------------
  
  #===============================================================================
  # Created using the Atomic Simulation Environment (ASE)
  
  # Mon Nov 17 11:26:16 2025
  
  #=======================================================
  empty -1.5510070000000000 -0.1145200000000000 0.0000000000000000 O
  empty -1.9342590000000000 0.7625030000000000 0.0000000000000000 H
  empty -0.5996770000000000 0.0407120000000000 0.0000000000000000 H
  atom 1.3506250000000000 0.1114690000000000 0.0000000000000000 O
  atom 1.6803980000000001 -0.3737410000000000 -0.7585610000000000 H
  atom 1.6803980000000001 -0.3737410000000000 0.7585610000000000 H
  
  -----------------------------------------------------------------------
  Completed first pass over input file geometry.in .
  -----------------------------------------------------------------------
  

  Basic array size parameters:
  | Number of species                 :        2
  | Number of atoms                   :        6
  | Max. basis fn. angular momentum   :        2
  | Max. atomic/ionic basis occupied n:        2
  | Max. number of basis fn. types    :        2
  | Max. radial fns per species/type  :        3
  | Max. logarithmic grid size        :     1301
  | Max. radial integration grid size :       36
  | Max. angular integration grid size:      302
  | Max. angular grid division number :        8
  | Radial grid for Hartree potential :     1301
  | Number of spin channels           :        1

  Definition of standardized fundamental physical constants in this FHI-aims run:
  | Using the set of values used in FHI-aims up to 2024, which combines values from
  | different CODATA sets - see constants.f90.
  | Use the 'codata' keyword in control.in to change this selection.

  Memory overcommitment is allowed on your operating system.

------------------------------------------------------------
          Reading file control.in.
------------------------------------------------------------
  override_default_empty_basis_order: Set to .true. - if ghost sites set at the start of geometry.in,
  their corresponding basis functions will remain at the beginning of the indexing arrays.
  XC: Using LibXC. Please refer to LibXC output for further details.
  Using libxc - Initializing
  Libxc version: 6.1.0

  You have selected libxc functional LDA_X (  1)
    - Description: Slater exchange
    - Type: LDA(Exchange)
    - Using the following   0 external libxc parameters:
    - Reference to Literature:
      [1] P. A. M. Dirac.,  Math. Proc. Cambridge Philos. Soc. 26, 376 (1930)
      [2] F. Bloch.,  Z. Phys. 57, 545 (1929)

  You have selected libxc functional LDA_C_VWN (  7)
    - Description: Vosko, Wilk & Nusair (VWN5)
    - Type: LDA(Correlation)
    - Using the following   0 external libxc parameters:
    - Reference to Literature:
      [1] S. H. Vosko, L. Wilk, and M. Nusair.,  Can. J. Phys. 58, 1200 (1980)

  Scalar relativistic treatment of kinetic energy: on-site free-atom approximation to ZORA.
  Spin treatment: No spin polarisation.
****************** QM embedding ************************
QM embedding type frozendensity selected.
read_and_write                           option is selected for the potential.
********************************************************
  density grad tau lapl on integration gridwill be written out.
  Charge =  -0.000000E+00: Neutral system requested explicitly.

  Reading configuration options for species O                   .
  | Found nuclear charge :   8.0000
  | Found atomic mass :    15.999400000000000      amu
  | Found l_max for Hartree potential  :   4
  | Found cutoff potl. onset [A], width [A], scale factor :    3.50000    1.50000    1.00000
  | Threshold for basis-dependent cutoff potential is   0.100000E-03
  | Found data for basic radial integration grid :    36 points, outermost radius =    5.000 A
  | Found multiplier for basic radial grid :   1
  | Found angular grid specification: user-specified.
  | Specified grid contains     5 separate shells.
  | Check grid settings after all constraints further below.
  | Found free-atom valence shell :  2 s   2.000
  | Found free-atom valence shell :  2 p   4.000
  | No ionic wave fns used. Skipping ion_occ.
  | No ionic wave fns used. Skipping ion_occ.
  | Found hydrogenic basis function :  2 p   1.800
  | Found hydrogenic basis function :  3 d   7.600
  | Found hydrogenic basis function :  3 s   6.400
 | Encountered keyword species, ending the description of species O                   .
  Species O                   : Missing cutoff potential type.
  Defaulting to exp(1/x)/(1-x)^2 type cutoff potential.
  Species O : No 'logarithmic' tag. Using default grid for free atom:
  | Default logarithmic grid data [bohr] : 0.1000E-03 0.1000E+03 0.1012E+01
  Species O : On-site basis accuracy parameter (for Gram-Schmidt orthonormalisation) not specified.
  Using default value basis_acc =  0.1000000E-03.
  Species O                   : Using default innermost maximum threshold i_radial=  2 for radial functions.
  Species O                   : Default cutoff onset for free atom density etc. : 0.35000000E+01 AA.
  Species O                   : Basic radial grid will be enhanced according to radial_multiplier =   1, to contain    36 grid points.

  Reading configuration options for species H                   .
  | Found nuclear charge :   1.0000
  | Found atomic mass :    1.0079400000000001      amu
  | Found l_max for Hartree potential  :   4
  | Found cutoff potl. onset [A], width [A], scale factor :    3.50000    1.50000    1.00000
  | Threshold for basis-dependent cutoff potential is   0.100000E-03
  | Found data for basic radial integration grid :    24 points, outermost radius =    5.000 A
  | Found multiplier for basic radial grid :   1
  | Found angular grid specification: user-specified.
  | Specified grid contains     5 separate shells.
  | Check grid settings after all constraints further below.
  | Found free-atom valence shell :  1 s   1.000
  | No ionic wave fns used. Skipping ion_occ.
  | Found hydrogenic basis function :  2 s   2.100
  | Found hydrogenic basis function :  2 p   3.500
  Species H                   : Missing cutoff potential type.
  Defaulting to exp(1/x)/(1-x)^2 type cutoff potential.
  Species H : No 'logarithmic' tag. Using default grid for free atom:
  | Default logarithmic grid data [bohr] : 0.1000E-03 0.1000E+03 0.1012E+01
  Species H : On-site basis accuracy parameter (for Gram-Schmidt orthonormalisation) not specified.
  Using default value basis_acc =  0.1000000E-03.
  Species H                   : Using default innermost maximum threshold i_radial=  2 for radial functions.
  Species H                   : Default cutoff onset for free atom density etc. : 0.35000000E+01 AA.
  Species H                   : Basic radial grid will be enhanced according to radial_multiplier =   1, to contain    24 grid points.

  Finished reading input file 'control.in'.

------------------------------------------------------------


------------------------------------------------------------
          Reading geometry description geometry.in.
------------------------------------------------------------
  | The smallest distance between any two atoms is         0.95710576 AA.
  | The first atom of this pair is atom number                      1 .
  | The second atom of this pair is atom number                     2 .
  Input structure read successfully.
  The structure contains        6 atoms,  and a total of         10.000 electrons.

  Input geometry:
  | No unit cell requested.
  | Atomic structure:
  |       Atom                x [A]            y [A]            z [A]
  |    1: Species O            -1.55100700       -0.11452000        0.00000000
  |    2: Species H            -1.93425900        0.76250300        0.00000000
  |    3: Species H            -0.59967700        0.04071200        0.00000000
  |       Ghost               x [A]            y [A]            z [A]
  |    4: Species O         1.35062500        0.11146900        0.00000000
  |    5: Species H         1.68039800       -0.37374100       -0.75856100
  |    6: Species H         1.68039800       -0.37374100        0.75856100

  Slab Identifier: This is not a periodic structure.

  Finished reading input file 'geometry.in'.



  Consistency checks for stacksize environment parameter are next.

  | Maximum stacksize for task 0: unlimited
  | Current stacksize for task 0: unlimited

  Consistency checks for the contents of control.in are next.

  MPI_IN_PLACE appears to work with this MPI implementation.
  | Keeping use_mpi_in_place .true. (see manual).
  Target number of points in a grid batch is not set. Defaulting to  100
  Method for grid partitioning is not set. Defaulting to parallel hash+maxmin partitioning.
  Batch size limit is not set. Defaulting to    200
  By default, will store active basis functions for each batch.
  If in need of memory, prune_basis_once .false. can be used to disable this option.
  communication_type for Hartree potential was not specified.
  Defaulting to calc_hartree .
  Defaulting to Pulay charge density mixer.
  Pulay mixer: Number of relevant iterations not set.
  Defaulting to    8 iterations.
  Pulay mixer: Number of initial linear mixing iterations not set.
  Defaulting to    0 iterations.
  Work space size for distributed Hartree potential not set.
  Defaulting to   0.200000E+03 MB.
  Mixing parameter for charge density mixing has not been set.
  Using default: charge_mix_param =     0.0500.
  The mixing parameter will be adjusted in iteration number     2 of each s.c.f. cycle (i.e., each geometry step).
  Algorithm-dependent basis array size parameters:
  | n_max_pulay                         :        8
  Maximum number of self-consistency iterations not provided.
  Presetting  1000 iterations.
  Presetting      1001 iterations before the initial mixing cycle
  is restarted anyway using the sc_init_iter criterion / keyword.
  Presetting a factor      1.000 between actual scf density residual
  and density convergence criterion sc_accuracy_rho below which sc_init_iter
  takes no effect.
 * No s.c.f. convergence criteria (sc_accuracy_*) were provided in control.in.
 * The run will proceed with a reasonable default guess, but please check whether.
 * the s.c.f. cycles seem to take too much or too little time.
  Calculation of forces was not defined in control.in. No forces will be calculated.
  Geometry relaxation not requested: no relaxation will be performed.
 * Notice: The s.c.f. convergence criterion sc_accuracy_rho was not provided.
 * We used to stop in this case, and ask the user to provide reasonable
 * scf convergence criteria. However, this led some users to employ criteria
 * that led to extremely long run times, e.g., for simple relaxation.
 * We now preset a default value for sc_accuracy_rho if it is not set.
 * You may still wish to check if this setting is too tight or too loose for your needs.
 * Based on n_atoms and forces and force-correction status, FHI-aims chose sc_accuracy_rho =  0.100000E-05 .
  No accuracy limit for integral partition fn. given. Defaulting to  0.1000E-14.
  No threshold value for u(r) in integrations given. Defaulting to  0.1000E-05.
  No occupation type (smearing scheme) given. Defaulting to Gaussian broadening, width =  0.1000E-01 eV.
  The width will be adjusted in iteration number     2 of each s.c.f. cycle (i.e., each geometry step).
  No accuracy for occupation numbers given. Defaulting to  0.1000E-12.
  No threshold value for occupation numbers given. Defaulting to  0.0000E+00.
  No accuracy for fermi level given. Defaulting to  0.1000E-19.
  Maximum # of iterations to find E_F not set. Defaulting to  200.
  Preferred method for the eigenvalue solver ('KS_method') not specified in 'control.in'.
  Defaulting to serial version LAPACK (via ELSI).
  Will not use alltoall communication since running on < 1024 CPUs.
  Threshold for basis singularities not set.
  Default threshold for basis singularities:  0.1000E-04
  partition_type (choice of integration weights) for integrals was not specified.
  | Using a version of the partition function of Stratmann and coworkers ('stratmann_sparse').
  | At each grid point, the set of atoms used to build the partition table is smoothly restricted to
  | only those atoms whose free-atom density would be non-zero at that grid point.
  Partitioning for Hartree potential was not defined. Using partition_type for integrals.
  | Adjusted default value of keyword multip_moments_threshold to:       0.10000000E-11
  | This value may affect high angular momentum components of the Hartree potential in periodic systems.
  No q(lm)/r^(l+1) cutoff set for long-range Hartree potential.
  | Using default value of  0.100000E-09 .
  | Verify using the multipole_threshold keyword.
  Defaulting to new monopole extrapolation.
  Density update method: automatic selection selected.
  Charge integration errors on the 3D integration grid will be compensated
  by explicit normalization and distribution of residual charges.
  Use the "compensate_multipole_errors" flag to change this behaviour.
  Set 'collect_eigenvectors' to be '.true.' for all serial calculations. This is mandatory.
  Set 'collect_eigenvectors' to be '.true.' for use_density_matrix .false.
  Set 'collect_eigenvectors' to be '.true.' for KS_method lapack_fast and serial.
  Found potential conflicts with setting 'use_local_index' for this calculation. Will not set it.
** WARNING:

  You have specified the use of LibXC.

  ** PLEASE ** be careful using LibXC. Whilst most of the LDA, GGA and MGGA
  functionals, and hybrid variations therein, should be stable (though we
  always recommend testing!), there are several fancy functionals with e.g.
  range-separation, like HSE03/HSE06/LC-PBEh, and also MGGA functionals
  that depend on the laplacian of the density, like BR89, that are not
  fully implemented due to the infrastructure for these functionals being
  incomplete or non-generic.
  If you want to use these functionals please contact the development team
  and we will work on them with you!

** END OF WARNING

  Consistency checks for the contents of geometry.in are next.

  Number of empty states per atom not set in control.in - providing a guess from actual geometry.
  | Total number of empty states used during s.c.f. cycle:        6
  If you use a very high smearing, use empty_states (per atom!) in control.in to increase this value.

  Structure-dependent array size parameters: 
  | Maximum number of distinct radial functions  :        9
  | Maximum number of basis functions            :       48
  | Number of Kohn-Sham states (occupied + empty):       11
------------------------------------------------------------
  After read_input_data [GB]:    518.35

  Performing system and environment tests:
  | Environment variable OMP_NUM_THREADS correctly set to 1.
  | Checking for ScaLAPACK...
  | Testing pdtran()...
  | All pdtran() tests passed.
  | Testing CPU compatibility for run-time vs. build-time.
  | Reading /proc/cpuinfo for CPU information ...
  | Built for  : AMD EPYC 7742 64-Core Processor
  | Running on : AMD EPYC 7742 64-Core Processor
  | Runtime CPU compatibility verified.
  
  After prepare_system [GB]:    518.35

------------------------------------------------------------
          Preparing all fixed parts of the calculation.
------------------------------------------------------------
  Determining machine precision:
     2.2250738585072014E-308
  Setting up grids for atomic and cluster calculations.

  Creating wave function, potential, and density for free atoms.
  Runtime choices for atomic solver:
  | atomic solver xc        : Libxc (as specified by xc flag)
  | compute density gradient: 0
  | compute kinetic density : F

  Species: O

  List of occupied orbitals and eigenvalues:
    n    l              occ      energy [Ha]    energy [eV]
    1    0           2.0000       -18.786204      -511.1986
    2    0           2.0000        -0.872776       -23.7494
    2    1           4.0000        -0.337808        -9.1922


  Species: H

  List of occupied orbitals and eigenvalues:
    n    l              occ      energy [Ha]    energy [eV]
    1    0           1.0000        -0.232394        -6.3238


  Adding cutoff potential to free-atom effective potential.
  Creating fixed part of basis set: Ionic, confined, hydrogenic.

  O                    hydrogenic:

  List of hydrogenic basis orbitals: 
    n    l      effective z      eigenvalue [eV]  inner max. [A]     outer max. [A]     outer radius [A]   
    2    1         1.800000       -10.9749           1.164242           1.164242           4.578029
    3    2         7.600000       -87.3180           0.624125           0.624125           3.251020
    3    0         6.400000       -61.9207           0.061167           1.081902           4.001998


  H                    hydrogenic:

  List of hydrogenic basis orbitals: 
    n    l      effective z      eigenvalue [eV]  inner max. [A]     outer max. [A]     outer radius [A]   
    2    0         2.100000       -14.9728           0.193243           1.317208           4.583499
    2    1         3.500000       -41.6669           0.602369           0.602369           3.723403

  Creating atomic-like basis functions for current effective potential.

  Species O                   :

  List of atomic basis orbitals and eigenvalues:
    n    l      energy [Ha]    energy [eV]    outer radius [A]
    1    0       -18.786204      -511.1986       1.433179
    2    0        -0.872776       -23.7494       4.413171
    2    1        -0.337808        -9.1922       4.522403


  Species H                   :

  List of atomic basis orbitals and eigenvalues:
    n    l      energy [Ha]    energy [eV]    outer radius [A]
    1    0        -0.232394        -6.3238       4.527807

  Assembling full basis from fixed parts.
  | Species O :   atomic orbital   1 s accepted.
  | Species O :    hydro orbital   3 s accepted.
  | Species O :   atomic orbital   2 s accepted.
  | Species O :   atomic orbital   2 p accepted.
  | Species O :    hydro orbital   2 p accepted.
  | Species O :    hydro orbital   3 d accepted.
  | Species H :   atomic orbital   1 s accepted.
  | Species H :    hydro orbital   2 s accepted.
  | Species H :    hydro orbital   2 p accepted.

  Basis size parameters after reduction:
  | Total number of radial functions:        9
  | Total number of basis functions :       48

  Per-task memory consumption for arrays in subroutine allocate_ext:
  |           2.999320MB.
  Testing on-site integration grid accuracy.
  |  Species  Function  <phi|h_atom|phi> (log., in eV)  <phi|h_atom|phi> (rad., in eV)
           1        1               -511.1986301746               -511.1985271099
           1        2                 14.8973441792                 14.8974678153
           1        3                -21.2728126736                -21.2728278214
           1        4                 -9.1923562881                 -9.1924988039
           1        5                  8.1918203891                  8.1723693621
           1        6                 45.7972224159                 45.7971867744
           2        7                 -6.3250366001                 -6.3237456395
           2        8                 14.1293432307                 14.1351868259
           2        9                 25.3608678443                 25.3610104388

  Preparing densities etc. for the partition functions (integrals / Hartree potential).

  Preparations completed.
  max(cpu_time)          :      0.081 s.
  Wall clock time (cpu1) :      0.081 s.
------------------------------------------------------------
  After prepare_scf [GB]:    518.35

  Initializing index lists of integration centers etc. from given atomic structure:
  | Number of centers in hartree potential                       :         6
  | Number of centers in hartree multipole                       :         6
  | Number of centers in electron density summation              :         6
  | Number of centers in basis integrals                         :         6
  | Number of centers in integrals                               :         6
  | Number of centers in hamiltonian                             :         6
  | Number of centers in partition table from touching 0-cell    :         6
  | Number of centers in partition table total                   :         6
  After initialize_bc_dependent_lists [GB]:    518.35

  Initializing index lists of integration centers etc. from given atomic structure:
  | Number of centers in hartree potential                       :         6
  | Number of centers in hartree multipole                       :         6
  | Number of centers in electron density summation              :         6
  | Number of centers in basis integrals                         :         6
  | Number of centers in integrals                               :         6
  | Number of centers in hamiltonian                             :         6
  | Number of centers in partition table from touching 0-cell    :         6
  | Number of centers in partition table total                   :         6

------------------------------------------------------------
          Begin self-consistency loop: Initialization.

          Date     :  20251117, Time     :  112616.150
------------------------------------------------------------
  Available memory per node after initialize_hartree_non_periodic_ewald [GB]:    518.35
  Available memory per node after initialize_recip_hartree_potential [GB]:    518.35
  Available memory per node after initialize_scalapack [GB]:    518.35
  Available memory per node after aims_elsi_init_scf [GB]:    518.35
  Available memory per node after initialize_fixed_grids [GB]:    518.35
  Partitioning the integration grid into batches with parallel hashing+maxmin method.
  | Number of batches:      471
  | Maximal batch size:     136
  | Minimal batch size:      55
  | Average batch size:      67.618
  | Standard deviation of batch sizes:      17.407

  Integration load balanced across     1 MPI tasks.
  Work distribution over tasks is as follows:
  Task     0 has      31848 integration points.
  Available memory per node after partition_grid [GB]:    518.35
  Initializing partition tables, free-atom densities, potentials, etc. across the integration grid (initialize_grid_storage).
  | initialize_grid_storage: Actual outermost partition radius vs. multipole_radius_free
  | (-- VB: in principle, multipole_radius_free should be larger, hence this output)
  | Species        1: Confinement radius =              4.999999999999999 AA, multipole_radius_free =              5.048384829883283 AA.
  | Species        1: outer_partition_radius set to              5.048384829883283 AA .
  | Species        2: Confinement radius =              4.999999999999999 AA, multipole_radius_free =              5.054417573612229 AA.
  | Species        2: outer_partition_radius set to              5.054417573612229 AA .
  | The sparse table of interatomic distances needs          0.39 kbyte instead of         0.29 kbyte of memory.
  | Using the partition_type stratmann_smoother will reduce your memory usage.
  | Net number of integration points:    31848
  | of which are non-zero points    :    28499
  Available memory per node after initialize_grid_storage_p1 [GB]:    518.35
  Renormalizing the initial density to the exact electron count on the 3D integration grid.
  | Initial density: Formal number of electrons (from input files) :      10.0000000000
  | Integrated number of electrons on 3D grid     :       9.9999409528
  | Charge integration error                      :      -0.0000590472
  | Normalization factor for density and gradient :       1.0000059048
  Renormalizing the free-atom superposition density to the exact electron count on the 3D integration grid.
  | Formal number of electrons (from input files) :      10.0000000000
  | Integrated number of electrons on 3D grid     :       9.9999409528
  | Charge integration error                      :      -0.0000590472
  | Normalization factor for density and gradient :       1.0000059048
  Obtaining max. number of non-zero basis functions in each batch (get_n_compute_maxes).
  | Maximal number of non-zero basis functions:       48 in task     0
  Selecting the method for density update.
  Loop over occupied states selected for charge density update.
  Available memory per node after get_n_compute_maxes_p1 [GB]:    518.35
  Allocating        0.004 MB for KS_eigenvector
  Available memory per node after allocate_matrices [GB]:    518.35
  Available memory per node after init_comm_sparse_local_matrix_scalapack [GB]:    518.35
  Integrating Hamiltonian matrix: batch-based integration.
  Time summed over all CPUs for integration: real work        0.140 s, elapsed        0.140 s
  Available memory per node after integrate hamiltonian matrix [GB]:    518.35
  Integrating overlap matrix.
  Time summed over all CPUs for integration: real work        0.090 s, elapsed        0.090 s
  Available memory per node after integrate ovlp matrix [GB]:    518.35
  Available memory per node after ASI_callbacks invoke [GB]:    518.35
  Available memory per node after save_overlap_scalapack [GB]:    518.35

  Updating Kohn-Sham eigenvalues and eigenvectors using ELSI and the (modified) LAPACK eigensolver.
  Overlap matrix is not singular
  | Lowest and highest eigenvalues :  0.9623E-02,  0.3379E+01
  Finished singularity check of overlap matrix
  | Time :     0.001 s
  Starting LAPACK eigensolver
  Finished Cholesky decomposition
  | Time :     0.000 s
  Finished transformation to standard eigenproblem
  | Time :     0.000 s
  Finished solving standard eigenproblem
  | Time :     0.000 s
  Finished back-transformation of eigenvectors
  | Time :     0.000 s

  Obtaining occupation numbers and electronic chemical potential using ELSI.
  | Note that, for insulating systems, the printed 'chemical potential' value is not uniquely defined.
  | It can be anywhere in the energy gap, as long as it correctly separates occupied and unoccupied states.
  | In systems with a gap, the physically relevant chemical potential is the VBM or HOMO.

  | Chemical potential (Fermi level):    -6.89003948 eV
  Available memory per node after advance_KS_solution [GB]:    518.35
  Writing Kohn-Sham eigenvalues.

  State    Occupation    Eigenvalue [Ha]    Eigenvalue [eV]
      1       2.00000         -18.902432         -514.36135
      2       2.00000          -1.104634          -30.05863
      3       2.00000          -0.643334          -17.50601
      4       2.00000          -0.520528          -14.16430
      5       2.00000          -0.451352          -12.28191
      6       0.00000          -0.055057           -1.49817
      7       0.00000           0.028184            0.76694
      8       0.00000           0.087217            2.37330
      9       0.00000           0.207789            5.65421
     10       0.00000           0.248348            6.75790
     11       0.00000           0.258440            7.03251

  Highest occupied state (VBM) at    -12.28191278 eV
  | Occupation number:      2.00000000

  Lowest unoccupied state (CBM) at    -1.49816618 eV
  | Occupation number:      0.00000000

  Overall HOMO-LUMO gap:     10.78374660 eV.
  Calculating total energy contributions from superposition of free atom densities.

  Total energy components:
  | Sum of eigenvalues            :         -43.24456191 Ha       -1176.74440162 eV
  | XC energy correction          :          -8.52027253 Ha        -231.84841177 eV
  | XC potential correction       :          11.22265771 Ha         305.38405419 eV
  | Free-atom electrostatic energy:         -35.53356047 Ha        -966.91737661 eV
  | Hartree energy correction     :          -0.00000000 Ha          -0.00000000 eV
  | Entropy correction            :          -0.00000000 Ha          -0.00000000 eV
  | ---------------------------
  | Total energy                  :         -76.07573719 Ha       -2070.12613581 eV
  | Total energy, T -> 0          :         -76.07573719 Ha       -2070.12613581 eV  <-- do not rely on this value for anything but (periodic) metals
  | Electronic free energy        :         -76.07573719 Ha       -2070.12613581 eV

  Derived energy quantities:
  | Kinetic energy                :          75.06107004 Ha        2042.51563796 eV
  | Electrostatic energy          :        -142.61653471 Ha       -3880.79336200 eV
  | Energy correction for multipole
  | error in Hartree potential    :           0.00000000 Ha           0.00000000 eV
  | Sum of eigenvalues per atom                           :        -196.12406694 eV
  | Total energy (T->0) per atom                          :        -345.02102264 eV  <-- do not rely on this value for anything but (periodic) metals
  | Electronic free energy per atom                       :        -345.02102264 eV
  Initialize hartree_potential_storage
  Max. number of atoms included in rho_multipole:            6

  End scf initialization - timings             :  max(cpu_time)    wall_clock(cpu1)
  | Time for scf. initialization                :        0.435 s           0.437 s
  | Boundary condition initialization           :        0.000 s           0.000 s
  | Integration                                 :        0.229 s           0.230 s
  | Solution of K.-S. eqns.                     :        0.001 s           0.001 s
  | Grid partitioning                           :        0.074 s           0.075 s
  | Preloading free-atom quantities on grid     :        0.094 s           0.094 s
  | Free-atom superposition energy              :        0.036 s           0.037 s
  | Total energy evaluation                     :        0.000 s           0.000 s

  Partial memory accounting:
  | Current value for overall tracked memory usage:
  |   Minimum:        0.022 MB (on task 0)
  |   Maximum:        0.022 MB (on task 0)
  |   Average:        0.022 MB
  | Peak value for overall tracked memory usage:
  |   Minimum:        1.094 MB (on task 0 after allocating grid_partition)
  |   Maximum:        1.094 MB (on task 0 after allocating grid_partition)
  |   Average:        1.094 MB
  | Largest tracked array allocation so far:
  |   Minimum:        0.729 MB (all_coords on task 0)
  |   Maximum:        0.729 MB (all_coords on task 0)
  |   Average:        0.729 MB
  Note:  These values currently only include a subset of arrays which are explicitly tracked.
  The "true" memory usage will be greater.
------------------------------------------------------------
  QM embedding ...
  Calculation with embedded potential.
  Found potential from the other fragment.
  Started to re-assign grid points for external embedding data.
  Successfully assigned      31848 of    31848 grid points.
  Needed           1014295104 steps...
  ************************************************************
  QM embedding ...
  Calculation with embedded density.
  Found density from the other fragment.
  Started to re-assign grid points for external embedding data.
  Successfully assigned      31848 of    31848 grid points.
  Needed           1014295104 steps...
  ************************************************************
  Closing LibXC For XC Potentials ...
  Initializing LibXC For Non-additive Kinetic Potentials ...
  Using libxc - Initializing
  Libxc version: 6.1.0

  You have selected libxc functional LDA_K_TF ( 50)
    - Description: Thomas-Fermi kinetic energy
    - Type: LDA(Kinetic energy functional)
    - Using the following   0 external libxc parameters:
    - Reference to Literature:
      [1] L. H. Thomas.,  Math. Proc. Cambridge Philos. Soc. 23, 542 (1927)
      [2] E. Fermi.,  Rendiconti dell'Accademia Nazionale dei Lincei 6, 602 (1927)

  Closing LibXC For Non-additive Kinetic Potentials ...
  Initializing LibXC For Non-additive XC Potentials ...
  Using libxc - Initializing
  Libxc version: 6.1.0

  You have selected libxc functional LDA_X (  1)
    - Description: Slater exchange
    - Type: LDA(Exchange)
    - Using the following   0 external libxc parameters:
    - Reference to Literature:
      [1] P. A. M. Dirac.,  Math. Proc. Cambridge Philos. Soc. 26, 376 (1930)
      [2] F. Bloch.,  Z. Phys. 57, 545 (1929)

  You have selected libxc functional LDA_C_VWN (  7)
    - Description: Vosko, Wilk & Nusair (VWN5)
    - Type: LDA(Correlation)
    - Using the following   0 external libxc parameters:
    - Reference to Literature:
      [1] S. H. Vosko, L. Wilk, and M. Nusair.,  Can. J. Phys. 58, 1200 (1980)

  Closing LibXC For Non-additive XC Potentials ...
  Reinitializing LibXC For XC Potentials ...
  Using libxc - Initializing
  Libxc version: 6.1.0

  You have selected libxc functional LDA_X (  1)
    - Description: Slater exchange
    - Type: LDA(Exchange)
    - Using the following   0 external libxc parameters:
    - Reference to Literature:
      [1] P. A. M. Dirac.,  Math. Proc. Cambridge Philos. Soc. 26, 376 (1930)
      [2] F. Bloch.,  Z. Phys. 57, 545 (1929)

  You have selected libxc functional LDA_C_VWN (  7)
    - Description: Vosko, Wilk & Nusair (VWN5)
    - Type: LDA(Correlation)
    - Using the following   0 external libxc parameters:
    - Reference to Literature:
      [1] S. H. Vosko, L. Wilk, and M. Nusair.,  Can. J. Phys. 58, 1200 (1980)

  Available memory after allocating mixing [GB]:    518.37
  Evaluating new KS density.
  Integration grid: deviation in total charge (<rho> - N_e) =   1.065814E-14

  Time for density update prior                :  max(cpu_time)    wall_clock(cpu1)
  | self-consistency iterative process          :        0.087 s           0.087 s
  Available memory before start of SCF loop [GB]:    518.37

------------------------------------------------------------
          Begin self-consistency iteration #    1

  Date     :  20251117, Time     :  112627.273
------------------------------------------------------------
  Pulay mixing of updated and previous charge densities.
  Available memory per node after mixing [GB]:    518.37
  Renormalizing the density to the exact electron count on the 3D integration grid.
  | Formal number of electrons (from input files) :      10.0000000000
  | Integrated number of electrons on 3D grid     :      10.0000000000
  | Charge integration error                      :      -0.0000000000
  | Normalization factor for density and gradient :       1.0000000000
  Closing LibXC For XC Potentials ...
  Initializing LibXC For Non-additive Kinetic Potentials ...
  Using libxc - Initializing
  Libxc version: 6.1.0

  You have selected libxc functional LDA_K_TF ( 50)
    - Description: Thomas-Fermi kinetic energy
    - Type: LDA(Kinetic energy functional)
    - Using the following   0 external libxc parameters:
    - Reference to Literature:
      [1] L. H. Thomas.,  Math. Proc. Cambridge Philos. Soc. 23, 542 (1927)
      [2] E. Fermi.,  Rendiconti dell'Accademia Nazionale dei Lincei 6, 602 (1927)

  Closing LibXC For Non-additive Kinetic Potentials ...
  Initializing LibXC For Non-additive XC Potentials ...
  Using libxc - Initializing
  Libxc version: 6.1.0

  You have selected libxc functional LDA_X (  1)
    - Description: Slater exchange
    - Type: LDA(Exchange)
    - Using the following   0 external libxc parameters:
    - Reference to Literature:
      [1] P. A. M. Dirac.,  Math. Proc. Cambridge Philos. Soc. 26, 376 (1930)
      [2] F. Bloch.,  Z. Phys. 57, 545 (1929)

  You have selected libxc functional LDA_C_VWN (  7)
    - Description: Vosko, Wilk & Nusair (VWN5)
    - Type: LDA(Correlation)
    - Using the following   0 external libxc parameters:
    - Reference to Literature:
      [1] S. H. Vosko, L. Wilk, and M. Nusair.,  Can. J. Phys. 58, 1200 (1980)

  Closing LibXC For Non-additive XC Potentials ...
  Reinitializing LibXC For XC Potentials ...
  Using libxc - Initializing
  Libxc version: 6.1.0

  You have selected libxc functional LDA_X (  1)
    - Description: Slater exchange
    - Type: LDA(Exchange)
    - Using the following   0 external libxc parameters:
    - Reference to Literature:
      [1] P. A. M. Dirac.,  Math. Proc. Cambridge Philos. Soc. 26, 376 (1930)
      [2] F. Bloch.,  Z. Phys. 57, 545 (1929)

  You have selected libxc functional LDA_C_VWN (  7)
    - Description: Vosko, Wilk & Nusair (VWN5)
    - Type: LDA(Correlation)
    - Using the following   0 external libxc parameters:
    - Reference to Literature:
      [1] S. H. Vosko, L. Wilk, and M. Nusair.,  Can. J. Phys. 58, 1200 (1980)


  Evaluating partitioned Hartree potential by multipole expansion.
  | Original multipole sum: apparent total charge =  -0.319429E-12
  | Sum of charges compensated after spline to logarithmic grids =   0.113635E-04
  | Analytical far-field extrapolation by fixed multipoles:
  | Hartree multipole sum: apparent total charge =  -0.319448E-12
  Summing up the Hartree potential.
  Time summed over all CPUs for potential: real work        0.075 s, elapsed        0.075 s
  | RMS charge density error from multipole expansion :   0.367188E-03

  Integrating Hamiltonian matrix: batch-based integration.
  Time summed over all CPUs for integration: real work        0.140 s, elapsed        0.140 s

  Updating Kohn-Sham eigenvalues and eigenvectors using ELSI and the (modified) LAPACK eigensolver.
  Starting LAPACK eigensolver
  Finished Cholesky decomposition
  | Time :     0.000 s
  Finished transformation to standard eigenproblem
  | Time :     0.000 s
  Finished solving standard eigenproblem
  | Time :     0.001 s
  Finished back-transformation of eigenvectors
  | Time :     0.000 s

  Obtaining occupation numbers and electronic chemical potential using ELSI.
  | Note that, for insulating systems, the printed 'chemical potential' value is not uniquely defined.
  | It can be anywhere in the energy gap, as long as it correctly separates occupied and unoccupied states.
  | In systems with a gap, the physically relevant chemical potential is the VBM or HOMO.

  | Chemical potential (Fermi level):    -6.58067247 eV
  Writing Kohn-Sham eigenvalues.

  State    Occupation    Eigenvalue [Ha]    Eigenvalue [eV]
      1       2.00000         -18.861460         -513.24645
      2       2.00000          -1.084791          -29.51867
      3       2.00000          -0.625953          -17.03305
      4       2.00000          -0.500474          -13.61860
      5       2.00000          -0.430604          -11.71734
      6       0.00000          -0.053066           -1.44401
      7       0.00000           0.034008            0.92540
      8       0.00000           0.045121            1.22780
      9       0.00000           0.200910            5.46703
     10       0.00000           0.216090            5.88010
     11       0.00000           0.236199            6.42730

  Highest occupied state (VBM) at    -11.71733848 eV
  | Occupation number:      2.00000000

  Lowest unoccupied state (CBM) at    -1.44400646 eV
  | Occupation number:      0.00000000

  Overall HOMO-LUMO gap:     10.27333201 eV.

  Total energy components:
  | Sum of eigenvalues            :         -43.00656681 Ha       -1170.26822542 eV
  | XC energy correction          :          -8.54718263 Ha        -232.58067298 eV
  | XC potential correction       :          11.25816138 Ha         306.35015810 eV
  | Free-atom electrostatic energy:         -35.53356047 Ha        -966.91737661 eV
  | Hartree energy correction     :          -0.23075527 Ha          -6.27917038 eV
  | Entropy correction            :          -0.00000000 Ha          -0.00000000 eV
  | ---------------------------
  | Total energy                  :         -76.05990380 Ha       -2069.69528729 eV
  | Total energy, T -> 0          :         -76.05990380 Ha       -2069.69528729 eV  <-- do not rely on this value for anything but (periodic) metals
  | Electronic free energy        :         -76.05990380 Ha       -2069.69528729 eV

  Derived energy quantities:
  | Kinetic energy                :          75.22556635 Ha        2046.99181006 eV
  | Electrostatic energy          :        -142.73828751 Ha       -3884.10642436 eV
  | Energy correction for multipole
  | error in Hartree potential    :           0.00013867 Ha           0.00377351 eV
  | Sum of eigenvalues per atom                           :        -195.04470424 eV
  | Total energy (T->0) per atom                          :        -344.94921455 eV  <-- do not rely on this value for anything but (periodic) metals
  | Electronic free energy per atom                       :        -344.94921455 eV
  Evaluating new KS density.
  Integration grid: deviation in total charge (<rho> - N_e) =  -2.131628E-14

  Self-consistency convergence accuracy:
  | Change of charge density      :  0.3189E+00
  | Change of unmixed KS density  :  0.9069E+01
  | Change of sum of eigenvalues  :  0.6476E+01 eV
  | Change of total energy        :  0.4308E+00 eV


------------------------------------------------------------
  End self-consistency iteration #     1       :  max(cpu_time)    wall_clock(cpu1)
  | Time for this iteration                     :        0.377 s           0.378 s
  | Charge density update                       :        0.087 s           0.087 s
  | Density mixing                              :        0.001 s           0.001 s
  | Hartree multipole update                    :        0.007 s           0.007 s
  | Hartree multipole summation                 :        0.076 s           0.076 s
  | Integration                                 :        0.140 s           0.140 s
  | Solution of K.-S. eqns.                     :        0.001 s           0.001 s
  | Total energy evaluation                     :        0.000 s           0.000 s

  Partial memory accounting:
  | Current value for overall tracked memory usage:
  |   Minimum:        4.639 MB (on task 0)
  |   Maximum:        4.639 MB (on task 0)
  |   Average:        4.639 MB
  | Peak value for overall tracked memory usage:
  |   Minimum:        4.806 MB (on task 0 after allocating wave)
  |   Maximum:        4.806 MB (on task 0 after allocating wave)
  |   Average:        4.806 MB
  | Largest tracked array allocation so far:
  |   Minimum:        1.944 MB (previous_rho_diff on task 0)
  |   Maximum:        1.944 MB (previous_rho_diff on task 0)
  |   Average:        1.944 MB
  Note:  These values currently only include a subset of arrays which are explicitly tracked.
  The "true" memory usage will be greater.
------------------------------------------------------------

------------------------------------------------------------
          Begin self-consistency iteration #    2

  Date     :  20251117, Time     :  112627.651
------------------------------------------------------------
  Pulay mixing of updated and previous charge densities.
  Available memory per node after mixing [GB]:    518.37
  Renormalizing the density to the exact electron count on the 3D integration grid.
  | Formal number of electrons (from input files) :      10.0000000000
  | Integrated number of electrons on 3D grid     :      10.0000000000
  | Charge integration error                      :       0.0000000000
  | Normalization factor for density and gradient :       1.0000000000
  Closing LibXC For XC Potentials ...
  Initializing LibXC For Non-additive Kinetic Potentials ...
  Using libxc - Initializing
  Libxc version: 6.1.0

  You have selected libxc functional LDA_K_TF ( 50)
    - Description: Thomas-Fermi kinetic energy
    - Type: LDA(Kinetic energy functional)
    - Using the following   0 external libxc parameters:
    - Reference to Literature:
      [1] L. H. Thomas.,  Math. Proc. Cambridge Philos. Soc. 23, 542 (1927)
      [2] E. Fermi.,  Rendiconti dell'Accademia Nazionale dei Lincei 6, 602 (1927)

  Closing LibXC For Non-additive Kinetic Potentials ...
  Initializing LibXC For Non-additive XC Potentials ...
  Using libxc - Initializing
  Libxc version: 6.1.0

  You have selected libxc functional LDA_X (  1)
    - Description: Slater exchange
    - Type: LDA(Exchange)
    - Using the following   0 external libxc parameters:
    - Reference to Literature:
      [1] P. A. M. Dirac.,  Math. Proc. Cambridge Philos. Soc. 26, 376 (1930)
      [2] F. Bloch.,  Z. Phys. 57, 545 (1929)

  You have selected libxc functional LDA_C_VWN (  7)
    - Description: Vosko, Wilk & Nusair (VWN5)
    - Type: LDA(Correlation)
    - Using the following   0 external libxc parameters:
    - Reference to Literature:
      [1] S. H. Vosko, L. Wilk, and M. Nusair.,  Can. J. Phys. 58, 1200 (1980)

  Closing LibXC For Non-additive XC Potentials ...
  Reinitializing LibXC For XC Potentials ...
  Using libxc - Initializing
  Libxc version: 6.1.0

  You have selected libxc functional LDA_X (  1)
    - Description: Slater exchange
    - Type: LDA(Exchange)
    - Using the following   0 external libxc parameters:
    - Reference to Literature:
      [1] P. A. M. Dirac.,  Math. Proc. Cambridge Philos. Soc. 26, 376 (1930)
      [2] F. Bloch.,  Z. Phys. 57, 545 (1929)

  You have selected libxc functional LDA_C_VWN (  7)
    - Description: Vosko, Wilk & Nusair (VWN5)
    - Type: LDA(Correlation)
    - Using the following   0 external libxc parameters:
    - Reference to Literature:
      [1] S. H. Vosko, L. Wilk, and M. Nusair.,  Can. J. Phys. 58, 1200 (1980)


  Evaluating partitioned Hartree potential by multipole expansion.
  | Original multipole sum: apparent total charge =   0.790448E-13
  | Sum of charges compensated after spline to logarithmic grids =   0.788928E-04
  | Analytical far-field extrapolation by fixed multipoles:
  | Hartree multipole sum: apparent total charge =   0.791063E-13
  Summing up the Hartree potential.
  Time summed over all CPUs for potential: real work        0.075 s, elapsed        0.075 s
  | RMS charge density error from multipole expansion :   0.250125E-02

  Integrating Hamiltonian matrix: batch-based integration.
  Time summed over all CPUs for integration: real work        0.140 s, elapsed        0.140 s

  Updating Kohn-Sham eigenvalues and eigenvectors using ELSI and the (modified) LAPACK eigensolver.
  Starting LAPACK eigensolver
  Finished Cholesky decomposition
  | Time :     0.000 s
  Finished transformation to standard eigenproblem
  | Time :     0.000 s
  Finished solving standard eigenproblem
  | Time :     0.001 s
  Finished back-transformation of eigenvectors
  | Time :     0.000 s

  Obtaining occupation numbers and electronic chemical potential using ELSI.
  | Note that, for insulating systems, the printed 'chemical potential' value is not uniquely defined.
  | It can be anywhere in the energy gap, as long as it correctly separates occupied and unoccupied states.
  | In systems with a gap, the physically relevant chemical potential is the VBM or HOMO.

  | Chemical potential (Fermi level):    -4.63510819 eV
  Highest occupied state (VBM) at     -8.56064734 eV
  | Occupation number:      2.00000000

  Lowest unoccupied state (CBM) at    -0.70956904 eV
  | Occupation number:      0.00000000

  Overall HOMO-LUMO gap:      7.85107831 eV.

  Checking to see if s.c.f. parameters should be adjusted.
  The system likely has a gap. Increased the default Pulay mixing parameter (charge_mix_param). Value:   0.200000 .
  Kept the default occupation width. Value:   0.010000 eV.

  Total energy components:
  | Sum of eigenvalues            :         -41.68688733 Ha       -1134.35791963 eV
  | XC energy correction          :          -8.70095373 Ha        -236.76499759 eV
  | XC potential correction       :          11.46099931 Ha         311.86965890 eV
  | Free-atom electrostatic energy:         -35.53356047 Ha        -966.91737661 eV
  | Hartree energy correction     :          -1.54202672 Ha         -41.96068198 eV
  | Entropy correction            :          -0.00000000 Ha          -0.00000000 eV
  | ---------------------------
  | Total energy                  :         -76.00242894 Ha       -2068.13131690 eV
  | Total energy, T -> 0          :         -76.00242894 Ha       -2068.13131690 eV  <-- do not rely on this value for anything but (periodic) metals
  | Electronic free energy        :         -76.00242894 Ha       -2068.13131690 eV

  Derived energy quantities:
  | Kinetic energy                :          76.06393076 Ha        2069.80486661 eV
  | Electrostatic energy          :        -143.36540597 Ha       -3901.17118592 eV
  | Energy correction for multipole
  | error in Hartree potential    :           0.00067804 Ha           0.01845036 eV
  | Sum of eigenvalues per atom                           :        -189.05965327 eV
  | Total energy (T->0) per atom                          :        -344.68855282 eV  <-- do not rely on this value for anything but (periodic) metals
  | Electronic free energy per atom                       :        -344.68855282 eV
  Evaluating new KS density.
  Integration grid: deviation in total charge (<rho> - N_e) =   2.664535E-14

  Self-consistency convergence accuracy:
  | Change of charge density      :  0.2775E+00
  | Change of unmixed KS density  :  0.3162E-01
  | Change of sum of eigenvalues  :  0.3591E+02 eV
  | Change of total energy        :  0.1564E+01 eV


------------------------------------------------------------
  End self-consistency iteration #     2       :  max(cpu_time)    wall_clock(cpu1)
  | Time for this iteration                     :        0.379 s           0.380 s
  | Charge density update                       :        0.087 s           0.087 s
  | Density mixing                              :        0.002 s           0.002 s
  | Hartree multipole update                    :        0.007 s           0.007 s
  | Hartree multipole summation                 :        0.075 s           0.076 s
  | Integration                                 :        0.140 s           0.140 s
  | Solution of K.-S. eqns.                     :        0.001 s           0.001 s
  | Total energy evaluation                     :        0.000 s           0.000 s

  Partial memory accounting:
  | Current value for overall tracked memory usage:
  |   Minimum:        4.640 MB (on task 0)
  |   Maximum:        4.640 MB (on task 0)
  |   Average:        4.640 MB
  | Peak value for overall tracked memory usage:
  |   Minimum:        4.807 MB (on task 0 after allocating wave)
  |   Maximum:        4.807 MB (on task 0 after allocating wave)
  |   Average:        4.807 MB
  | Largest tracked array allocation so far:
  |   Minimum:        1.944 MB (previous_rho_diff on task 0)
  |   Maximum:        1.944 MB (previous_rho_diff on task 0)
  |   Average:        1.944 MB
  Note:  These values currently only include a subset of arrays which are explicitly tracked.
  The "true" memory usage will be greater.
------------------------------------------------------------

------------------------------------------------------------
          Begin self-consistency iteration #    3

  Date     :  20251117, Time     :  112628.031
------------------------------------------------------------
  Pulay mixing of updated and previous charge densities.
  Available memory per node after mixing [GB]:    518.37
  Renormalizing the density to the exact electron count on the 3D integration grid.
  | Formal number of electrons (from input files) :      10.0000000000
  | Integrated number of electrons on 3D grid     :      10.0000000000
  | Charge integration error                      :       0.0000000000
  | Normalization factor for density and gradient :       1.0000000000
  Closing LibXC For XC Potentials ...
  Initializing LibXC For Non-additive Kinetic Potentials ...
  Using libxc - Initializing
  Libxc version: 6.1.0

  You have selected libxc functional LDA_K_TF ( 50)
    - Description: Thomas-Fermi kinetic energy
    - Type: LDA(Kinetic energy functional)
    - Using the following   0 external libxc parameters:
    - Reference to Literature:
      [1] L. H. Thomas.,  Math. Proc. Cambridge Philos. Soc. 23, 542 (1927)
      [2] E. Fermi.,  Rendiconti dell'Accademia Nazionale dei Lincei 6, 602 (1927)

  Closing LibXC For Non-additive Kinetic Potentials ...
  Initializing LibXC For Non-additive XC Potentials ...
  Using libxc - Initializing
  Libxc version: 6.1.0

  You have selected libxc functional LDA_X (  1)
    - Description: Slater exchange
    - Type: LDA(Exchange)
    - Using the following   0 external libxc parameters:
    - Reference to Literature:
      [1] P. A. M. Dirac.,  Math. Proc. Cambridge Philos. Soc. 26, 376 (1930)
      [2] F. Bloch.,  Z. Phys. 57, 545 (1929)

  You have selected libxc functional LDA_C_VWN (  7)
    - Description: Vosko, Wilk & Nusair (VWN5)
    - Type: LDA(Correlation)
    - Using the following   0 external libxc parameters:
    - Reference to Literature:
      [1] S. H. Vosko, L. Wilk, and M. Nusair.,  Can. J. Phys. 58, 1200 (1980)

  Closing LibXC For Non-additive XC Potentials ...
  Reinitializing LibXC For XC Potentials ...
  Using libxc - Initializing
  Libxc version: 6.1.0

  You have selected libxc functional LDA_X (  1)
    - Description: Slater exchange
    - Type: LDA(Exchange)
    - Using the following   0 external libxc parameters:
    - Reference to Literature:
      [1] P. A. M. Dirac.,  Math. Proc. Cambridge Philos. Soc. 26, 376 (1930)
      [2] F. Bloch.,  Z. Phys. 57, 545 (1929)

  You have selected libxc functional LDA_C_VWN (  7)
    - Description: Vosko, Wilk & Nusair (VWN5)
    - Type: LDA(Correlation)
    - Using the following   0 external libxc parameters:
    - Reference to Literature:
      [1] S. H. Vosko, L. Wilk, and M. Nusair.,  Can. J. Phys. 58, 1200 (1980)


  Evaluating partitioned Hartree potential by multipole expansion.
  | Original multipole sum: apparent total charge =   0.904582E-13
  | Sum of charges compensated after spline to logarithmic grids =   0.977243E-04
  | Analytical far-field extrapolation by fixed multipoles:
  | Hartree multipole sum: apparent total charge =   0.897203E-13
  Summing up the Hartree potential.
  Time summed over all CPUs for potential: real work        0.075 s, elapsed        0.075 s
  | RMS charge density error from multipole expansion :   0.404867E-02

  Integrating Hamiltonian matrix: batch-based integration.
  Time summed over all CPUs for integration: real work        0.140 s, elapsed        0.140 s

  Updating Kohn-Sham eigenvalues and eigenvectors using ELSI and the (modified) LAPACK eigensolver.
  Starting LAPACK eigensolver
  Finished Cholesky decomposition
  | Time :     0.000 s
  Finished transformation to standard eigenproblem
  | Time :     0.000 s
  Finished solving standard eigenproblem
  | Time :     0.001 s
  Finished back-transformation of eigenvectors
  | Time :     0.000 s

  Obtaining occupation numbers and electronic chemical potential using ELSI.
  | Note that, for insulating systems, the printed 'chemical potential' value is not uniquely defined.
  | It can be anywhere in the energy gap, as long as it correctly separates occupied and unoccupied states.
  | In systems with a gap, the physically relevant chemical potential is the VBM or HOMO.

  | Chemical potential (Fermi level):    -4.49482256 eV
  Highest occupied state (VBM) at     -8.43920321 eV
  | Occupation number:      2.00000000

  Lowest unoccupied state (CBM) at    -0.55044190 eV
  | Occupation number:      0.00000000

  Overall HOMO-LUMO gap:      7.88876131 eV.

  Total energy components:
  | Sum of eigenvalues            :         -41.72249002 Ha       -1135.32671826 eV
  | XC energy correction          :          -8.69685072 Ha        -236.65334881 eV
  | XC potential correction       :          11.45529120 Ha         311.71433332 eV
  | Free-atom electrostatic energy:         -35.53356047 Ha        -966.91737661 eV
  | Hartree energy correction     :          -1.50282403 Ha         -40.89392253 eV
  | Entropy correction            :          -0.00000000 Ha          -0.00000000 eV
  | ---------------------------
  | Total energy                  :         -76.00043404 Ha       -2068.07703289 eV
  | Total energy, T -> 0          :         -76.00043404 Ha       -2068.07703289 eV  <-- do not rely on this value for anything but (periodic) metals
  | Electronic free energy        :         -76.00043404 Ha       -2068.07703289 eV

  Derived energy quantities:
  | Kinetic energy                :          75.77639702 Ha        2061.98067530 eV
  | Electrostatic energy          :        -143.07998034 Ha       -3893.40435938 eV
  | Energy correction for multipole
  | error in Hartree potential    :          -0.00115554 Ha          -0.03144372 eV
  | Sum of eigenvalues per atom                           :        -189.22111971 eV
  | Total energy (T->0) per atom                          :        -344.67950548 eV  <-- do not rely on this value for anything but (periodic) metals
  | Electronic free energy per atom                       :        -344.67950548 eV
  Evaluating new KS density.
  Integration grid: deviation in total charge (<rho> - N_e) =   3.552714E-15

  Self-consistency convergence accuracy:
  | Change of charge density      :  0.1176E+00
  | Change of unmixed KS density  :  0.1787E+00
  | Change of sum of eigenvalues  : -0.9688E+00 eV
  | Change of total energy        :  0.5428E-01 eV


------------------------------------------------------------
  End self-consistency iteration #     3       :  max(cpu_time)    wall_clock(cpu1)
  | Time for this iteration                     :        0.380 s           0.380 s
  | Charge density update                       :        0.087 s           0.087 s
  | Density mixing                              :        0.003 s           0.003 s
  | Hartree multipole update                    :        0.007 s           0.007 s
  | Hartree multipole summation                 :        0.075 s           0.076 s
  | Integration                                 :        0.140 s           0.140 s
  | Solution of K.-S. eqns.                     :        0.001 s           0.001 s
  | Total energy evaluation                     :        0.000 s           0.000 s

  Partial memory accounting:
  | Current value for overall tracked memory usage:
  |   Minimum:        4.640 MB (on task 0)
  |   Maximum:        4.640 MB (on task 0)
  |   Average:        4.640 MB
  | Peak value for overall tracked memory usage:
  |   Minimum:        4.807 MB (on task 0 after allocating wave)
  |   Maximum:        4.807 MB (on task 0 after allocating wave)
  |   Average:        4.807 MB
  | Largest tracked array allocation so far:
  |   Minimum:        1.944 MB (previous_rho_diff on task 0)
  |   Maximum:        1.944 MB (previous_rho_diff on task 0)
  |   Average:        1.944 MB
  Note:  These values currently only include a subset of arrays which are explicitly tracked.
  The "true" memory usage will be greater.
------------------------------------------------------------

------------------------------------------------------------
          Begin self-consistency iteration #    4

  Date     :  20251117, Time     :  112628.412
------------------------------------------------------------
  Pulay mixing of updated and previous charge densities.
  Available memory per node after mixing [GB]:    518.37
  Renormalizing the density to the exact electron count on the 3D integration grid.
  | Formal number of electrons (from input files) :      10.0000000000
  | Integrated number of electrons on 3D grid     :      10.0000000000
  | Charge integration error                      :       0.0000000000
  | Normalization factor for density and gradient :       1.0000000000
  Closing LibXC For XC Potentials ...
  Initializing LibXC For Non-additive Kinetic Potentials ...
  Using libxc - Initializing
  Libxc version: 6.1.0

  You have selected libxc functional LDA_K_TF ( 50)
    - Description: Thomas-Fermi kinetic energy
    - Type: LDA(Kinetic energy functional)
    - Using the following   0 external libxc parameters:
    - Reference to Literature:
      [1] L. H. Thomas.,  Math. Proc. Cambridge Philos. Soc. 23, 542 (1927)
      [2] E. Fermi.,  Rendiconti dell'Accademia Nazionale dei Lincei 6, 602 (1927)

  Closing LibXC For Non-additive Kinetic Potentials ...
  Initializing LibXC For Non-additive XC Potentials ...
  Using libxc - Initializing
  Libxc version: 6.1.0

  You have selected libxc functional LDA_X (  1)
    - Description: Slater exchange
    - Type: LDA(Exchange)
    - Using the following   0 external libxc parameters:
    - Reference to Literature:
      [1] P. A. M. Dirac.,  Math. Proc. Cambridge Philos. Soc. 26, 376 (1930)
      [2] F. Bloch.,  Z. Phys. 57, 545 (1929)

  You have selected libxc functional LDA_C_VWN (  7)
    - Description: Vosko, Wilk & Nusair (VWN5)
    - Type: LDA(Correlation)
    - Using the following   0 external libxc parameters:
    - Reference to Literature:
      [1] S. H. Vosko, L. Wilk, and M. Nusair.,  Can. J. Phys. 58, 1200 (1980)

  Closing LibXC For Non-additive XC Potentials ...
  Reinitializing LibXC For XC Potentials ...
  Using libxc - Initializing
  Libxc version: 6.1.0

  You have selected libxc functional LDA_X (  1)
    - Description: Slater exchange
    - Type: LDA(Exchange)
    - Using the following   0 external libxc parameters:
    - Reference to Literature:
      [1] P. A. M. Dirac.,  Math. Proc. Cambridge Philos. Soc. 26, 376 (1930)
      [2] F. Bloch.,  Z. Phys. 57, 545 (1929)

  You have selected libxc functional LDA_C_VWN (  7)
    - Description: Vosko, Wilk & Nusair (VWN5)
    - Type: LDA(Correlation)
    - Using the following   0 external libxc parameters:
    - Reference to Literature:
      [1] S. H. Vosko, L. Wilk, and M. Nusair.,  Can. J. Phys. 58, 1200 (1980)


  Evaluating partitioned Hartree potential by multipole expansion.
  | Original multipole sum: apparent total charge =  -0.905689E-13
  | Sum of charges compensated after spline to logarithmic grids =   0.135160E-03
  | Analytical far-field extrapolation by fixed multipoles:
  | Hartree multipole sum: apparent total charge =  -0.912822E-13
  Summing up the Hartree potential.
  Time summed over all CPUs for potential: real work        0.076 s, elapsed        0.076 s
  | RMS charge density error from multipole expansion :   0.613915E-02

  Integrating Hamiltonian matrix: batch-based integration.
  Time summed over all CPUs for integration: real work        0.140 s, elapsed        0.140 s

  Updating Kohn-Sham eigenvalues and eigenvectors using ELSI and the (modified) LAPACK eigensolver.
  Starting LAPACK eigensolver
  Finished Cholesky decomposition
  | Time :     0.000 s
  Finished transformation to standard eigenproblem
  | Time :     0.000 s
  Finished solving standard eigenproblem
  | Time :     0.001 s
  Finished back-transformation of eigenvectors
  | Time :     0.000 s

  Obtaining occupation numbers and electronic chemical potential using ELSI.
  | Note that, for insulating systems, the printed 'chemical potential' value is not uniquely defined.
  | It can be anywhere in the energy gap, as long as it correctly separates occupied and unoccupied states.
  | In systems with a gap, the physically relevant chemical potential is the VBM or HOMO.

  | Chemical potential (Fermi level):    -3.85047020 eV
  Highest occupied state (VBM) at     -7.51973860 eV
  | Occupation number:      2.00000000

  Lowest unoccupied state (CBM) at    -0.18120179 eV
  | Occupation number:      0.00000000

  Overall HOMO-LUMO gap:      7.33853681 eV.

  Total energy components:
  | Sum of eigenvalues            :         -41.40408551 Ha       -1126.66249061 eV
  | XC energy correction          :          -8.73834817 Ha        -237.78255184 eV
  | XC potential correction       :          11.50976904 Ha         313.19675075 eV
  | Free-atom electrostatic energy:         -35.53356047 Ha        -966.91737661 eV
  | Hartree energy correction     :          -1.83061178 Ha         -49.81348106 eV
  | Entropy correction            :          -0.00000000 Ha          -0.00000000 eV
  | ---------------------------
  | Total energy                  :         -75.99683689 Ha       -2067.97914937 eV
  | Total energy, T -> 0          :         -75.99683689 Ha       -2067.97914937 eV  <-- do not rely on this value for anything but (periodic) metals
  | Electronic free energy        :         -75.99683689 Ha       -2067.97914937 eV

  Derived energy quantities:
  | Kinetic energy                :          75.73913558 Ha        2060.96674009 eV
  | Electrostatic energy          :        -142.99762431 Ha       -3891.16333762 eV
  | Energy correction for multipole
  | error in Hartree potential    :          -0.00261602 Ha          -0.07118554 eV
  | Sum of eigenvalues per atom                           :        -187.77708177 eV
  | Total energy (T->0) per atom                          :        -344.66319156 eV  <-- do not rely on this value for anything but (periodic) metals
  | Electronic free energy per atom                       :        -344.66319156 eV
  Evaluating new KS density.
  Integration grid: deviation in total charge (<rho> - N_e) =  -1.776357E-15

  Self-consistency convergence accuracy:
  | Change of charge density      :  0.6937E-01
  | Change of unmixed KS density  :  0.2479E-01
  | Change of sum of eigenvalues  :  0.8664E+01 eV
  | Change of total energy        :  0.9788E-01 eV


------------------------------------------------------------
  End self-consistency iteration #     4       :  max(cpu_time)    wall_clock(cpu1)
  | Time for this iteration                     :        0.381 s           0.381 s
  | Charge density update                       :        0.087 s           0.087 s
  | Density mixing                              :        0.004 s           0.004 s
  | Hartree multipole update                    :        0.007 s           0.007 s
  | Hartree multipole summation                 :        0.075 s           0.076 s
  | Integration                                 :        0.140 s           0.140 s
  | Solution of K.-S. eqns.                     :        0.001 s           0.001 s
  | Total energy evaluation                     :        0.000 s           0.000 s

  Partial memory accounting:
  | Current value for overall tracked memory usage:
  |   Minimum:        4.641 MB (on task 0)
  |   Maximum:        4.641 MB (on task 0)
  |   Average:        4.641 MB
  | Peak value for overall tracked memory usage:
  |   Minimum:        4.808 MB (on task 0 after allocating wave)
  |   Maximum:        4.808 MB (on task 0 after allocating wave)
  |   Average:        4.808 MB
  | Largest tracked array allocation so far:
  |   Minimum:        1.944 MB (previous_rho_diff on task 0)
  |   Maximum:        1.944 MB (previous_rho_diff on task 0)
  |   Average:        1.944 MB
  Note:  These values currently only include a subset of arrays which are explicitly tracked.
  The "true" memory usage will be greater.
------------------------------------------------------------

------------------------------------------------------------
          Begin self-consistency iteration #    5

  Date     :  20251117, Time     :  112628.793
------------------------------------------------------------
  Pulay mixing of updated and previous charge densities.
  Available memory per node after mixing [GB]:    518.37
  Renormalizing the density to the exact electron count on the 3D integration grid.
  | Formal number of electrons (from input files) :      10.0000000000
  | Integrated number of electrons on 3D grid     :      10.0000000000
  | Charge integration error                      :       0.0000000000
  | Normalization factor for density and gradient :       1.0000000000
  Closing LibXC For XC Potentials ...
  Initializing LibXC For Non-additive Kinetic Potentials ...
  Using libxc - Initializing
  Libxc version: 6.1.0

  You have selected libxc functional LDA_K_TF ( 50)
    - Description: Thomas-Fermi kinetic energy
    - Type: LDA(Kinetic energy functional)
    - Using the following   0 external libxc parameters:
    - Reference to Literature:
      [1] L. H. Thomas.,  Math. Proc. Cambridge Philos. Soc. 23, 542 (1927)
      [2] E. Fermi.,  Rendiconti dell'Accademia Nazionale dei Lincei 6, 602 (1927)

  Closing LibXC For Non-additive Kinetic Potentials ...
  Initializing LibXC For Non-additive XC Potentials ...
  Using libxc - Initializing
  Libxc version: 6.1.0

  You have selected libxc functional LDA_X (  1)
    - Description: Slater exchange
    - Type: LDA(Exchange)
    - Using the following   0 external libxc parameters:
    - Reference to Literature:
      [1] P. A. M. Dirac.,  Math. Proc. Cambridge Philos. Soc. 26, 376 (1930)
      [2] F. Bloch.,  Z. Phys. 57, 545 (1929)

  You have selected libxc functional LDA_C_VWN (  7)
    - Description: Vosko, Wilk & Nusair (VWN5)
    - Type: LDA(Correlation)
    - Using the following   0 external libxc parameters:
    - Reference to Literature:
      [1] S. H. Vosko, L. Wilk, and M. Nusair.,  Can. J. Phys. 58, 1200 (1980)

  Closing LibXC For Non-additive XC Potentials ...
  Reinitializing LibXC For XC Potentials ...
  Using libxc - Initializing
  Libxc version: 6.1.0

  You have selected libxc functional LDA_X (  1)
    - Description: Slater exchange
    - Type: LDA(Exchange)
    - Using the following   0 external libxc parameters:
    - Reference to Literature:
      [1] P. A. M. Dirac.,  Math. Proc. Cambridge Philos. Soc. 26, 376 (1930)
      [2] F. Bloch.,  Z. Phys. 57, 545 (1929)

  You have selected libxc functional LDA_C_VWN (  7)
    - Description: Vosko, Wilk & Nusair (VWN5)
    - Type: LDA(Correlation)
    - Using the following   0 external libxc parameters:
    - Reference to Literature:
      [1] S. H. Vosko, L. Wilk, and M. Nusair.,  Can. J. Phys. 58, 1200 (1980)


  Evaluating partitioned Hartree potential by multipole expansion.
[...]
  | Energy correction for multipole
  | error in Hartree potential    :          -0.00338330 Ha          -0.09206418 eV
  | Sum of eigenvalues per atom                           :        -187.47917704 eV
  | Total energy (T->0) per atom                          :        -344.66138581 eV  <-- do not rely on this value for anything but (periodic) metals
  | Electronic free energy per atom                       :        -344.66138581 eV
  Evaluating new KS density.
  Integration grid: deviation in total charge (<rho> - N_e) =   3.552714E-15

  Self-consistency convergence accuracy:
  | Change of charge density      :  0.1762E-04
  | Change of unmixed KS density  :  0.1210E-04
  | Change of sum of eigenvalues  : -0.2477E-02 eV
  | Change of total energy        : -0.1655E-05 eV


------------------------------------------------------------
  End self-consistency iteration #    11       :  max(cpu_time)    wall_clock(cpu1)
  | Time for this iteration                     :        0.385 s           0.386 s
  | Charge density update                       :        0.087 s           0.087 s
  | Density mixing                              :        0.008 s           0.008 s
  | Hartree multipole update                    :        0.007 s           0.008 s
  | Hartree multipole summation                 :        0.076 s           0.075 s
  | Integration                                 :        0.140 s           0.141 s
  | Solution of K.-S. eqns.                     :        0.001 s           0.001 s
  | Total energy evaluation                     :        0.000 s           0.000 s

  Partial memory accounting:
  | Current value for overall tracked memory usage:
  |   Minimum:        4.642 MB (on task 0)
  |   Maximum:        4.642 MB (on task 0)
  |   Average:        4.642 MB
  | Peak value for overall tracked memory usage:
  |   Minimum:        4.809 MB (on task 0 after allocating wave)
  |   Maximum:        4.809 MB (on task 0 after allocating wave)
  |   Average:        4.809 MB
  | Largest tracked array allocation so far:
  |   Minimum:        1.944 MB (previous_rho_diff on task 0)
  |   Maximum:        1.944 MB (previous_rho_diff on task 0)
  |   Average:        1.944 MB
  Note:  These values currently only include a subset of arrays which are explicitly tracked.
  The "true" memory usage will be greater.
------------------------------------------------------------

------------------------------------------------------------
          Begin self-consistency iteration #   12

  Date     :  20251117, Time     :  112631.489
------------------------------------------------------------
  Pulay mixing of updated and previous charge densities.
  Available memory per node after mixing [GB]:    518.37
  Renormalizing the density to the exact electron count on the 3D integration grid.
  | Formal number of electrons (from input files) :      10.0000000000
  | Integrated number of electrons on 3D grid     :      10.0000000000
  | Charge integration error                      :      -0.0000000000
  | Normalization factor for density and gradient :       1.0000000000
  Closing LibXC For XC Potentials ...
  Initializing LibXC For Non-additive Kinetic Potentials ...
  Using libxc - Initializing
  Libxc version: 6.1.0

  You have selected libxc functional LDA_K_TF ( 50)
    - Description: Thomas-Fermi kinetic energy
    - Type: LDA(Kinetic energy functional)
    - Using the following   0 external libxc parameters:
    - Reference to Literature:
      [1] L. H. Thomas.,  Math. Proc. Cambridge Philos. Soc. 23, 542 (1927)
      [2] E. Fermi.,  Rendiconti dell'Accademia Nazionale dei Lincei 6, 602 (1927)

  Closing LibXC For Non-additive Kinetic Potentials ...
  Initializing LibXC For Non-additive XC Potentials ...
  Using libxc - Initializing
  Libxc version: 6.1.0

  You have selected libxc functional LDA_X (  1)
    - Description: Slater exchange
    - Type: LDA(Exchange)
    - Using the following   0 external libxc parameters:
    - Reference to Literature:
      [1] P. A. M. Dirac.,  Math. Proc. Cambridge Philos. Soc. 26, 376 (1930)
      [2] F. Bloch.,  Z. Phys. 57, 545 (1929)

  You have selected libxc functional LDA_C_VWN (  7)
    - Description: Vosko, Wilk & Nusair (VWN5)
    - Type: LDA(Correlation)
    - Using the following   0 external libxc parameters:
    - Reference to Literature:
      [1] S. H. Vosko, L. Wilk, and M. Nusair.,  Can. J. Phys. 58, 1200 (1980)

  Closing LibXC For Non-additive XC Potentials ...
  Reinitializing LibXC For XC Potentials ...
  Using libxc - Initializing
  Libxc version: 6.1.0

  You have selected libxc functional LDA_X (  1)
    - Description: Slater exchange
    - Type: LDA(Exchange)
    - Using the following   0 external libxc parameters:
    - Reference to Literature:
      [1] P. A. M. Dirac.,  Math. Proc. Cambridge Philos. Soc. 26, 376 (1930)
      [2] F. Bloch.,  Z. Phys. 57, 545 (1929)

  You have selected libxc functional LDA_C_VWN (  7)
    - Description: Vosko, Wilk & Nusair (VWN5)
    - Type: LDA(Correlation)
    - Using the following   0 external libxc parameters:
    - Reference to Literature:
      [1] S. H. Vosko, L. Wilk, and M. Nusair.,  Can. J. Phys. 58, 1200 (1980)


  Evaluating partitioned Hartree potential by multipole expansion.
  | Original multipole sum: apparent total charge =  -0.139666E-12
  | Sum of charges compensated after spline to logarithmic grids =   0.164831E-03
  | Analytical far-field extrapolation by fixed multipoles:
  | Hartree multipole sum: apparent total charge =  -0.139026E-12
  Summing up the Hartree potential.
  Time summed over all CPUs for potential: real work        0.076 s, elapsed        0.076 s
  | RMS charge density error from multipole expansion :   0.652227E-02

  Integrating Hamiltonian matrix: batch-based integration.
  Time summed over all CPUs for integration: real work        0.140 s, elapsed        0.140 s

  Updating Kohn-Sham eigenvalues and eigenvectors using ELSI and the (modified) LAPACK eigensolver.
  Starting LAPACK eigensolver
  Finished Cholesky decomposition
  | Time :     0.000 s
  Finished transformation to standard eigenproblem
  | Time :     0.000 s
  Finished solving standard eigenproblem
  | Time :     0.000 s
  Finished back-transformation of eigenvectors
  | Time :     0.000 s

  Obtaining occupation numbers and electronic chemical potential using ELSI.
  | Note that, for insulating systems, the printed 'chemical potential' value is not uniquely defined.
  | It can be anywhere in the energy gap, as long as it correctly separates occupied and unoccupied states.
  | In systems with a gap, the physically relevant chemical potential is the VBM or HOMO.

  | Chemical potential (Fermi level):    -3.70508896 eV
  Highest occupied state (VBM) at     -7.30763473 eV
  | Occupation number:      2.00000000

  Lowest unoccupied state (CBM) at    -0.10254319 eV
  | Occupation number:      0.00000000

  Overall HOMO-LUMO gap:      7.20509154 eV.

  Total energy components:
  | Sum of eigenvalues            :         -41.33839892 Ha       -1124.87506769 eV
  | XC energy correction          :          -8.74481940 Ha        -237.95864319 eV
  | XC potential correction       :          11.51822883 Ha         313.42695349 eV
  | Free-atom electrostatic energy:         -35.53356047 Ha        -966.91737661 eV
  | Hartree energy correction     :          -1.89788875 Ha         -51.64418062 eV
  | Entropy correction            :          -0.00000000 Ha          -0.00000000 eV
  | ---------------------------
  | Total energy                  :         -75.99643872 Ha       -2067.96831462 eV
  | Total energy, T -> 0          :         -75.99643872 Ha       -2067.96831462 eV  <-- do not rely on this value for anything but (periodic) metals
  | Electronic free energy        :         -75.99643872 Ha       -2067.96831462 eV

  Derived energy quantities:
  | Kinetic energy                :          75.68806128 Ha        2059.57693751 eV
  | Electrostatic energy          :        -142.93968059 Ha       -3889.58660894 eV
  | Energy correction for multipole
  | error in Hartree potential    :          -0.00338329 Ha          -0.09206389 eV
  | Sum of eigenvalues per atom                           :        -187.47917795 eV
  | Total energy (T->0) per atom                          :        -344.66138577 eV  <-- do not rely on this value for anything but (periodic) metals
  | Electronic free energy per atom                       :        -344.66138577 eV

  Self-consistency convergence accuracy:
  | Change of charge density      :  0.7260E-06
  | Change of unmixed KS density  :  0.1228E-04
  | Change of sum of eigenvalues  : -0.5425E-05 eV
  | Change of total energy        :  0.2372E-06 eV

 Exporting DM for embedding
  Evaluating density matrix
  Integrating matrix elements of electron-nuclear potential.
  Integrating kinetic matrix: batch-based integration.
  Writing Kohn-Sham eigenvalues.

  State    Occupation    Eigenvalue [Ha]    Eigenvalue [eV]
      1       2.00000         -18.642529         -507.28903
      2       2.00000          -0.926761          -25.21844
      3       2.00000          -0.488016          -13.27960
      4       2.00000          -0.343343           -9.34283
      5       2.00000          -0.268551           -7.30763
      6       0.00000          -0.003768           -0.10254
      7       0.00000           0.065864            1.79224
      8       0.00000           0.098360            2.67652
      9       0.00000           0.237301            6.45728
     10       0.00000           0.258544            7.03535
     11       0.00000           0.263470            7.16937

  Highest occupied state (VBM) at     -7.30763473 eV
  | Occupation number:      2.00000000

  Lowest unoccupied state (CBM) at    -0.10254319 eV
  | Occupation number:      0.00000000

  Overall HOMO-LUMO gap:      7.20509154 eV.

  | Chemical Potential                          :    -3.70508896 eV
  | Note that, for insulating systems, the printed 'chemical potential' value is not uniquely defined.
  | It can be anywhere in the energy gap, as long as it correctly separates occupied and unoccupied states.
  | In systems with a gap, the physically relevant chemical potential is the VBM or HOMO.

  Self-consistency cycle converged.


------------------------------------------------------------
  End self-consistency iteration #    12       :  max(cpu_time)    wall_clock(cpu1)
  | Time for this iteration                     :        0.543 s           0.544 s
  | Charge density update                       :        0.000 s           0.000 s
  | Density mixing                              :        0.008 s           0.008 s
  | Hartree multipole update                    :        0.008 s           0.008 s
  | Hartree multipole summation                 :        0.076 s           0.076 s
  | Integration                                 :        0.140 s           0.141 s
  | Solution of K.-S. eqns.                     :        0.001 s           0.001 s
  | Total energy evaluation                     :        0.000 s           0.000 s

  Partial memory accounting:
  | Current value for overall tracked memory usage:
  |   Minimum:        4.642 MB (on task 0)
  |   Maximum:        4.642 MB (on task 0)
  |   Average:        4.642 MB
  | Peak value for overall tracked memory usage:
  |   Minimum:        4.809 MB (on task 0 after allocating wave)
  |   Maximum:        4.809 MB (on task 0 after allocating wave)
  |   Average:        4.809 MB
  | Largest tracked array allocation so far:
  |   Minimum:        1.944 MB (previous_rho_diff on task 0)
  |   Maximum:        1.944 MB (previous_rho_diff on task 0)
  |   Average:        1.944 MB
  Note:  These values currently only include a subset of arrays which are explicitly tracked.
  The "true" memory usage will be greater.
------------------------------------------------------------
  Evaluating new KS density using the density matrix
  Evaluating density matrix
  Writing things at each grid point to file
  rho_and_derivs_spin_1.dat
****************** Writing potential in real space grid ************************
  Removing Subsystem Potential ...
  Removing Non-additive Potential ...
  Writing Hartree potential on AIMS-grid to file 'output_potential_MPI_TASK'..
  Use this file for embedding of the potential into the other active fragment.
****************** Writing density in real space grid ************************
  Writing Hartree potential on AIMS-grid to file 'output_density_MPI_TASK'..
  Use this file for embedding of the density into the other active fragment.

  Energy and forces in a compact form:
  | Total energy uncorrected      :         -0.206796831462394E+04 eV
  | Total energy corrected        :         -0.206796831462394E+04 eV  <-- do not rely on this value for anything but (periodic) metals
  | Electronic free energy        :         -0.206796831462394E+04 eV

  ------------------------------------ 
  Start decomposition of the XC Energy 
  ------------------------------------ 
  X and C from original XC functional choice 
  Hartree-Fock Energy :          0.000000000 Ha              0.000000000 eV
  X Energy            :         -8.082835017 Ha           -219.945131510 eV
  C Energy            :         -0.661984387 Ha            -18.013511681 eV
  XC Energy w/o HF    :         -8.744819404 Ha           -237.958643191 eV
  Total XC Energy     :         -8.744819404 Ha           -237.958643191 eV
  ------------------------------------ 
  LDA X and C from self-consistent density 
  X Energy LDA        :         -8.082835017 Ha           -219.945131510 eV
  C Energy LDA        :         -0.659196536 Ha            -17.937650407 eV
  ------------------------------------ 
  End decomposition of the XC Energy 
  ------------------------------------ 

------------------------------------------------------------

------------------------------------------------------------------------------
  Final output of selected total energy values:

  The following output summarizes some interesting total energy values
  at the end of a run (AFTER all relaxation, molecular dynamics, etc.).

  | Total energy of the DFT / Hartree-Fock s.c.f. calculation      :          -2067.968314624 eV
  | Final zero-broadening corrected energy (caution - metals only) :          -2067.968314624 eV
  | For reference only, the value of 1 Hartree used in FHI-aims is :             27.211384500 eV

  Before relying on these values, please be sure to understand exactly which
  total energy value is referred to by a given number. Different objects may
  all carry the same name 'total energy'. Definitions:

  Total energy of the DFT / Hartree-Fock s.c.f. calculation:
  | Note that this energy does not include ANY quantities calculated after the
  | s.c.f. cycle, in particular not ANY RPA, MP2, etc. many-body perturbation terms.

  Final zero-broadening corrected energy:
  | For metallic systems only, a broadening of the occupation numbers at the Fermi
  | level can be extrapolated back to zero broadening by an electron-gas inspired
  | formula. For all systems that are not real metals, this value can be
  | meaningless and should be avoided.

------------------------------------------------------------------------------
  Methods described in the following list of references were used in this FHI-aims run.
  If you publish the results, please make sure to cite these reference if they apply.
  FHI-aims is an academic code, and for our developers (often, Ph.D. students
  and postdocs), scientific credit in the community is essential.
  Thank you for helping us!

  For any use of FHI-aims, please cite:

    Volker Blum, Ralf Gehrke, Felix Hanke, Paula Havu, Ville Havu,
    Xinguo Ren, Karsten Reuter, and Matthias Scheffler
    'Ab initio molecular simulations with numeric atom-centered orbitals'
    Computer Physics Communications 180, 2175-2196 (2009)
    http://doi.org/10.1016/j.cpc.2009.06.022


  The ELSI infrastructure was used in your run to solve the Kohn-Sham electronic structure.
  Please check out https://wordpress.elsi-interchange.org to learn more.
  If scalability is important for your project, please acknowledge ELSI by citing:

    V. W-z. Yu, F. Corsetti, A. Garcia, W. P. Huhn, M. Jacquelin, W. Jia,
    B. Lange, L. Lin, J. Lu, W. Mi, A. Seifitokaldani, A. Vazquez-Mayagoitia,
    C. Yang, H. Yang, and V. Blum
    'ELSI: A unified software interface for Kohn-Sham electronic structure solvers'
    Computer Physics Communications 222, 267-285 (2018).
    http://doi.org/10.1016/j.cpc.2017.09.007


  For the real-space grid partitioning and parallelization used in this calculation, please cite:

    Ville Havu, Volker Blum, Paula Havu, and Matthias Scheffler,
    'Efficient O(N) integration for all-electron electronic structure calculation'
    'using numerically tabulated basis functions'
    Journal of Computational Physics 228, 8367-8379 (2009).
    http://doi.org/10.1016/j.jcp.2009.08.008

  Of course, there are many other important community references, e.g., those cited in the
  above references. Our list is limited to references that describe implementations in the
  FHI-aims code. The reason is purely practical (length of this list) - please credit others as well.
------------------------------------------------------------
Warnings summary:

At least    1 warnings were raised during execution.

------------------------------------------------------------
          Leaving FHI-aims.
          Date     :  20251117, Time     :  112633.060

          Computational steps:
          | Number of self-consistency cycles          :           12
          | Number of SCF (re)initializations          :            1

          Detailed time accounting                     :  max(cpu_time)    wall_clock(cpu1)
          | Total time                                  :       16.706 s          16.998 s
          | Preparation time                            :        0.081 s           0.081 s
          | Boundary condition initalization            :        0.000 s           0.000 s
          | Grid partitioning                           :        0.074 s           0.075 s
          | Preloading free-atom quantities on grid     :        0.094 s           0.094 s
          | Free-atom superposition energy              :        0.036 s           0.037 s
          | Total time for integrations                 :        1.913 s           1.918 s
          | Total time for solution of K.-S. equations  :        0.008 s           0.010 s
          | Total time for density update               :        1.043 s           1.041 s
          | Total time for mixing                       :        0.066 s           0.064 s
          | Total time for Hartree multipole update     :        0.088 s           0.087 s
          | Total time for Hartree multipole sum        :        0.906 s           0.909 s
          | Total time for total energy evaluation      :        0.001 s           0.003 s
          | Total time for scaled ZORA corrections      :        0.000 s           0.000 s

          Partial memory accounting:
          | Residual value for overall tracked memory usage across tasks:     0.000000 MB (should be 0.000000 MB)
          | Peak values for overall tracked memory usage:
          |   Minimum:        5.275 MB (on task 0 after allocating hessian_basis_wave)
          |   Maximum:        5.275 MB (on task 0 after allocating hessian_basis_wave)
          |   Average:        5.275 MB
          | Largest tracked array allocation:
          |   Minimum:        1.944 MB (previous_rho_diff on task 0)
          |   Maximum:        1.944 MB (previous_rho_diff on task 0)
          |   Average:        1.944 MB
          Note:  These values currently only include a subset of arrays which are explicitly tracked.
          The "true" memory usage will be greater.

          Have a nice day.
------------------------------------------------------------
